+ 1 /NodeList/0/DeviceList/0/$ns3::PointToPointNetDevice/TxQueue/Enqueue ns3::PppHeader (Point-to-Point Protocol: IP (0x0021)) ns3::Ipv4Header (tos 0x0 DSCP Default ECN Not-ECT ttl 64 id 0 protocol 6 offset (bytes) 0 flags [none] length: 56 10.1.1.1 > 10.1.1.2) ns3::TcpHeader (49153 > 8080 [SYN] Seq=0 Ack=0 Win=65535 ns3::TcpOptionTS(1000;0) ns3::TcpOptionWinScale(2) ns3::TcpOptionSackPermitted([sack_perm]) ns3::TcpOptionEnd(EOL))
- 1 /NodeList/0/DeviceList/0/$ns3::PointToPointNetDevice/TxQueue/Dequeue ns3::PppHeader (Point-to-Point Protocol: IP (0x0021)) ns3::Ipv4Header (tos 0x0 DSCP Default ECN Not-ECT ttl 64 id 0 protocol 6 offset (bytes) 0 flags [none] length: 56 10.1.1.1 > 10.1.1.2) ns3::TcpHeader (49153 > 8080 [SYN] Seq=0 Ack=0 Win=65535 ns3::TcpOptionTS(1000;0) ns3::TcpOptionWinScale(2) ns3::TcpOptionSackPermitted([sack_perm]) ns3::TcpOptionEnd(EOL))
r 1.00209 /NodeList/1/DeviceList/0/$ns3::PointToPointNetDevice/MacRx ns3::PppHeader (Point-to-Point Protocol: IP (0x0021)) ns3::Ipv4Header (tos 0x0 DSCP Default ECN Not-ECT ttl 64 id 0 protocol 6 offset (bytes) 0 flags [none] length: 56 10.1.1.1 > 10.1.1.2) ns3::TcpHeader (49153 > 8080 [SYN] Seq=0 Ack=0 Win=65535 ns3::TcpOptionTS(1000;0) ns3::TcpOptionWinScale(2) ns3::TcpOptionSackPermitted([sack_perm]) ns3::TcpOptionEnd(EOL))
+ 1.00209 /NodeList/1/DeviceList/0/$ns3::PointToPointNetDevice/TxQueue/Enqueue ns3::PppHeader (Point-to-Point Protocol: IP (0x0021)) ns3::Ipv4Header (tos 0x0 DSCP Default ECN Not-ECT ttl 64 id 0 protocol 6 offset (bytes) 0 flags [none] length: 56 10.1.1.2 > 10.1.1.1) ns3::TcpHeader (8080 > 49153 [SYN|ACK] Seq=0 Ack=1 Win=65535 ns3::TcpOptionTS(1002;1000) ns3::TcpOptionWinScale(2) ns3::TcpOptionSackPermitted([sack_perm]) ns3::TcpOptionEnd(EOL))
- 1.00209 /NodeList/1/DeviceList/0/$ns3::PointToPointNetDevice/TxQueue/Dequeue ns3::PppHeader (Point-to-Point Protocol: IP (0x0021)) ns3::Ipv4Header (tos 0x0 DSCP Default ECN Not-ECT ttl 64 id 0 protocol 6 offset (bytes) 0 flags [none] length: 56 10.1.1.2 > 10.1.1.1) ns3::TcpHeader (8080 > 49153 [SYN|ACK] Seq=0 Ack=1 Win=65535 ns3::TcpOptionTS(1002;1000) ns3::TcpOptionWinScale(2) ns3::TcpOptionSackPermitted([sack_perm]) ns3::TcpOptionEnd(EOL))
r 1.00419 /NodeList/0/DeviceList/0/$ns3::PointToPointNetDevice/MacRx ns3::PppHeader (Point-to-Point Protocol: IP (0x0021)) ns3::Ipv4Header (tos 0x0 DSCP Default ECN Not-ECT ttl 64 id 0 protocol 6 offset (bytes) 0 flags [none] length: 56 10.1.1.2 > 10.1.1.1) ns3::TcpHeader (8080 > 49153 [SYN|ACK] Seq=0 Ack=1 Win=65535 ns3::TcpOptionTS(1002;1000) ns3::TcpOptionWinScale(2) ns3::TcpOptionSackPermitted([sack_perm]) ns3::TcpOptionEnd(EOL))
+ 1.00419 /NodeList/0/DeviceList/0/$ns3::PointToPointNetDevice/TxQueue/Enqueue ns3::PppHeader (Point-to-Point Protocol: IP (0x0021)) ns3::Ipv4Header (tos 0x0 DSCP Default ECN Not-ECT ttl 64 id 1 protocol 6 offset (bytes) 0 flags [none] length: 52 10.1.1.1 > 10.1.1.2) ns3::TcpHeader (49153 > 8080 [ACK] Seq=1 Ack=1 Win=32768 ns3::TcpOptionTS(1004;1002) ns3::TcpOptionEnd(EOL))
- 1.00419 /NodeList/0/DeviceList/0/$ns3::PointToPointNetDevice/TxQueue/Dequeue ns3::PppHeader (Point-to-Point Protocol: IP (0x0021)) ns3::Ipv4Header (tos 0x0 DSCP Default ECN Not-ECT ttl 64 id 1 protocol 6 offset (bytes) 0 flags [none] length: 52 10.1.1.1 > 10.1.1.2) ns3::TcpHeader (49153 > 8080 [ACK] Seq=1 Ack=1 Win=32768 ns3::TcpOptionTS(1004;1002) ns3::TcpOptionEnd(EOL))
+ 1.00419 /NodeList/0/DeviceList/0/$ns3::PointToPointNetDevice/TxQueue/Enqueue ns3::PppHeader (Point-to-Point Protocol: IP (0x0021)) ns3::Ipv4Header (tos 0x0 DSCP Default ECN Not-ECT ttl 64 id 2 protocol 6 offset (bytes) 0 flags [none] length: 588 10.1.1.1 > 10.1.1.2) ns3::TcpHeader (49153 > 8080 [ACK] Seq=1 Ack=1 Win=32768 ns3::TcpOptionTS(1004;1002) ns3::TcpOptionEnd(EOL)) Payload Fragment [0:536]
+ 1.00419 /NodeList/0/DeviceList/0/$ns3::PointToPointNetDevice/TxQueue/Enqueue ns3::PppHeader (Point-to-Point Protocol: IP (0x0021)) ns3::Ipv4Header (tos 0x0 DSCP Default ECN Not-ECT ttl 64 id 3 protocol 6 offset (bytes) 0 flags [none] length: 556 10.1.1.1 > 10.1.1.2) ns3::TcpHeader (49153 > 8080 [ACK] Seq=537 Ack=1 Win=32768 ns3::TcpOptionTS(1004;1002) ns3::TcpOptionEnd(EOL)) Payload Fragment [536:1040]
- 1.00427 /NodeList/0/DeviceList/0/$ns3::PointToPointNetDevice/TxQueue/Dequeue ns3::PppHeader (Point-to-Point Protocol: IP (0x0021)) ns3::Ipv4Header (tos 0x0 DSCP Default ECN Not-ECT ttl 64 id 2 protocol 6 offset (bytes) 0 flags [none] length: 588 10.1.1.1 > 10.1.1.2) ns3::TcpHeader (49153 > 8080 [ACK] Seq=1 Ack=1 Win=32768 ns3::TcpOptionTS(1004;1002) ns3::TcpOptionEnd(EOL)) Payload Fragment [0:536]
- 1.00522 /NodeList/0/DeviceList/0/$ns3::PointToPointNetDevice/TxQueue/Dequeue ns3::PppHeader (Point-to-Point Protocol: IP (0x0021)) ns3::Ipv4Header (tos 0x0 DSCP Default ECN Not-ECT ttl 64 id 3 protocol 6 offset (bytes) 0 flags [none] length: 556 10.1.1.1 > 10.1.1.2) ns3::TcpHeader (49153 > 8080 [ACK] Seq=537 Ack=1 Win=32768 ns3::TcpOptionTS(1004;1002) ns3::TcpOptionEnd(EOL)) Payload Fragment [536:1040]
r 1.00627 /NodeList/1/DeviceList/0/$ns3::PointToPointNetDevice/MacRx ns3::PppHeader (Point-to-Point Protocol: IP (0x0021)) ns3::Ipv4Header (tos 0x0 DSCP Default ECN Not-ECT ttl 64 id 1 protocol 6 offset (bytes) 0 flags [none] length: 52 10.1.1.1 > 10.1.1.2) ns3::TcpHeader (49153 > 8080 [ACK] Seq=1 Ack=1 Win=32768 ns3::TcpOptionTS(1004;1002) ns3::TcpOptionEnd(EOL))
r 1.00722 /NodeList/1/DeviceList/0/$ns3::PointToPointNetDevice/MacRx ns3::PppHeader (Point-to-Point Protocol: IP (0x0021)) ns3::Ipv4Header (tos 0x0 DSCP Default ECN Not-ECT ttl 64 id 2 protocol 6 offset (bytes) 0 flags [none] length: 588 10.1.1.1 > 10.1.1.2) ns3::TcpHeader (49153 > 8080 [ACK] Seq=1 Ack=1 Win=32768 ns3::TcpOptionTS(1004;1002) ns3::TcpOptionEnd(EOL)) Payload Fragment [0:536]
+ 1.00722 /NodeList/1/DeviceList/0/$ns3::PointToPointNetDevice/TxQueue/Enqueue ns3::PppHeader (Point-to-Point Protocol: IP (0x0021)) ns3::Ipv4Header (tos 0x0 DSCP Default ECN Not-ECT ttl 64 id 1 protocol 6 offset (bytes) 0 flags [none] length: 52 10.1.1.2 > 10.1.1.1) ns3::TcpHeader (8080 > 49153 [ACK] Seq=1 Ack=537 Win=32768 ns3::TcpOptionTS(1007;1004) ns3::TcpOptionEnd(EOL))
- 1.00722 /NodeList/1/DeviceList/0/$ns3::PointToPointNetDevice/TxQueue/Dequeue ns3::PppHeader (Point-to-Point Protocol: IP (0x0021)) ns3::Ipv4Header (tos 0x0 DSCP Default ECN Not-ECT ttl 64 id 1 protocol 6 offset (bytes) 0 flags [none] length: 52 10.1.1.2 > 10.1.1.1) ns3::TcpHeader (8080 > 49153 [ACK] Seq=1 Ack=537 Win=32768 ns3::TcpOptionTS(1007;1004) ns3::TcpOptionEnd(EOL))
r 1.00811 /NodeList/1/DeviceList/0/$ns3::PointToPointNetDevice/MacRx ns3::PppHeader (Point-to-Point Protocol: IP (0x0021)) ns3::Ipv4Header (tos 0x0 DSCP Default ECN Not-ECT ttl 64 id 3 protocol 6 offset (bytes) 0 flags [none] length: 556 10.1.1.1 > 10.1.1.2) ns3::TcpHeader (49153 > 8080 [ACK] Seq=537 Ack=1 Win=32768 ns3::TcpOptionTS(1004;1002) ns3::TcpOptionEnd(EOL)) Payload Fragment [536:1040]
+ 1.00832 /NodeList/0/DeviceList/0/$ns3::PointToPointNetDevice/TxQueue/Enqueue ns3::PppHeader (Point-to-Point Protocol: IP (0x0021)) ns3::Ipv4Header (tos 0x0 DSCP Default ECN Not-ECT ttl 64 id 4 protocol 6 offset (bytes) 0 flags [none] length: 588 10.1.1.1 > 10.1.1.2) ns3::TcpHeader (49153 > 8080 [ACK] Seq=1041 Ack=1 Win=32768 ns3::TcpOptionTS(1008;1002) ns3::TcpOptionEnd(EOL)) Payload Fragment [0:536]
- 1.00832 /NodeList/0/DeviceList/0/$ns3::PointToPointNetDevice/TxQueue/Dequeue ns3::PppHeader (Point-to-Point Protocol: IP (0x0021)) ns3::Ipv4Header (tos 0x0 DSCP Default ECN Not-ECT ttl 64 id 4 protocol 6 offset (bytes) 0 flags [none] length: 588 10.1.1.1 > 10.1.1.2) ns3::TcpHeader (49153 > 8080 [ACK] Seq=1041 Ack=1 Win=32768 ns3::TcpOptionTS(1008;1002) ns3::TcpOptionEnd(EOL)) Payload Fragment [0:536]
+ 1.00832 /NodeList/0/DeviceList/0/$ns3::PointToPointNetDevice/TxQueue/Enqueue ns3::PppHeader (Point-to-Point Protocol: IP (0x0021)) ns3::Ipv4Header (tos 0x0 DSCP Default ECN Not-ECT ttl 64 id 5 protocol 6 offset (bytes) 0 flags [none] length: 556 10.1.1.1 > 10.1.1.2) ns3::TcpHeader (49153 > 8080 [ACK] Seq=1577 Ack=1 Win=32768 ns3::TcpOptionTS(1008;1002) ns3::TcpOptionEnd(EOL)) Payload Fragment [536:1040]
- 1.00926 /NodeList/0/DeviceList/0/$ns3::PointToPointNetDevice/TxQueue/Dequeue ns3::PppHeader (Point-to-Point Protocol: IP (0x0021)) ns3::Ipv4Header (tos 0x0 DSCP Default ECN Not-ECT ttl 64 id 5 protocol 6 offset (bytes) 0 flags [none] length: 556 10.1.1.1 > 10.1.1.2) ns3::TcpHeader (49153 > 8080 [ACK] Seq=1577 Ack=1 Win=32768 ns3::TcpOptionTS(1008;1002) ns3::TcpOptionEnd(EOL)) Payload Fragment [536:1040]
r 1.0093 /NodeList/0/DeviceList/0/$ns3::PointToPointNetDevice/MacRx ns3::PppHeader (Point-to-Point Protocol: IP (0x0021)) ns3::Ipv4Header (tos 0x0 DSCP Default ECN Not-ECT ttl 64 id 1 protocol 6 offset (bytes) 0 flags [none] length: 52 10.1.1.2 > 10.1.1.1) ns3::TcpHeader (8080 > 49153 [ACK] Seq=1 Ack=537 Win=32768 ns3::TcpOptionTS(1007;1004) ns3::TcpOptionEnd(EOL))
r 1.01126 /NodeList/1/DeviceList/0/$ns3::PointToPointNetDevice/MacRx ns3::PppHeader (Point-to-Point Protocol: IP (0x0021)) ns3::Ipv4Header (tos 0x0 DSCP Default ECN Not-ECT ttl 64 id 4 protocol 6 offset (bytes) 0 flags [none] length: 588 10.1.1.1 > 10.1.1.2) ns3::TcpHeader (49153 > 8080 [ACK] Seq=1041 Ack=1 Win=32768 ns3::TcpOptionTS(1008;1002) ns3::TcpOptionEnd(EOL)) Payload Fragment [0:536]
+ 1.01126 /NodeList/1/DeviceList/0/$ns3::PointToPointNetDevice/TxQueue/Enqueue ns3::PppHeader (Point-to-Point Protocol: IP (0x0021)) ns3::Ipv4Header (tos 0x0 DSCP Default ECN Not-ECT ttl 64 id 2 protocol 6 offset (bytes) 0 flags [none] length: 52 10.1.1.2 > 10.1.1.1) ns3::TcpHeader (8080 > 49153 [ACK] Seq=1 Ack=1577 Win=32768 ns3::TcpOptionTS(1011;1004) ns3::TcpOptionEnd(EOL))
- 1.01126 /NodeList/1/DeviceList/0/$ns3::PointToPointNetDevice/TxQueue/Dequeue ns3::PppHeader (Point-to-Point Protocol: IP (0x0021)) ns3::Ipv4Header (tos 0x0 DSCP Default ECN Not-ECT ttl 64 id 2 protocol 6 offset (bytes) 0 flags [none] length: 52 10.1.1.2 > 10.1.1.1) ns3::TcpHeader (8080 > 49153 [ACK] Seq=1 Ack=1577 Win=32768 ns3::TcpOptionTS(1011;1004) ns3::TcpOptionEnd(EOL))
r 1.01216 /NodeList/1/DeviceList/0/$ns3::PointToPointNetDevice/MacRx ns3::PppHeader (Point-to-Point Protocol: IP (0x0021)) ns3::Ipv4Header (tos 0x0 DSCP Default ECN Not-ECT ttl 64 id 5 protocol 6 offset (bytes) 0 flags [none] length: 556 10.1.1.1 > 10.1.1.2) ns3::TcpHeader (49153 > 8080 [ACK] Seq=1577 Ack=1 Win=32768 ns3::TcpOptionTS(1008;1002) ns3::TcpOptionEnd(EOL)) Payload Fragment [536:1040]
r 1.01335 /NodeList/0/DeviceList/0/$ns3::PointToPointNetDevice/MacRx ns3::PppHeader (Point-to-Point Protocol: IP (0x0021)) ns3::Ipv4Header (tos 0x0 DSCP Default ECN Not-ECT ttl 64 id 2 protocol 6 offset (bytes) 0 flags [none] length: 52 10.1.1.2 > 10.1.1.1) ns3::TcpHeader (8080 > 49153 [ACK] Seq=1 Ack=1577 Win=32768 ns3::TcpOptionTS(1011;1004) ns3::TcpOptionEnd(EOL))
+ 1.01664 /NodeList/0/DeviceList/0/$ns3::PointToPointNetDevice/TxQueue/Enqueue ns3::PppHeader (Point-to-Point Protocol: IP (0x0021)) ns3::Ipv4Header (tos 0x0 DSCP Default ECN Not-ECT ttl 64 id 6 protocol 6 offset (bytes) 0 flags [none] length: 588 10.1.1.1 > 10.1.1.2) ns3::TcpHeader (49153 > 8080 [ACK] Seq=2081 Ack=1 Win=32768 ns3::TcpOptionTS(1016;1011) ns3::TcpOptionEnd(EOL)) Payload Fragment [0:536]
- 1.01664 /NodeList/0/DeviceList/0/$ns3::PointToPointNetDevice/TxQueue/Dequeue ns3::PppHeader (Point-to-Point Protocol: IP (0x0021)) ns3::Ipv4Header (tos 0x0 DSCP Default ECN Not-ECT ttl 64 id 6 protocol 6 offset (bytes) 0 flags [none] length: 588 10.1.1.1 > 10.1.1.2) ns3::TcpHeader (49153 > 8080 [ACK] Seq=2081 Ack=1 Win=32768 ns3::TcpOptionTS(1016;1011) ns3::TcpOptionEnd(EOL)) Payload Fragment [0:536]
+ 1.01664 /NodeList/0/DeviceList/0/$ns3::PointToPointNetDevice/TxQueue/Enqueue ns3::PppHeader (Point-to-Point Protocol: IP (0x0021)) ns3::Ipv4Header (tos 0x0 DSCP Default ECN Not-ECT ttl 64 id 7 protocol 6 offset (bytes) 0 flags [none] length: 556 10.1.1.1 > 10.1.1.2) ns3::TcpHeader (49153 > 8080 [ACK] Seq=2617 Ack=1 Win=32768 ns3::TcpOptionTS(1016;1011) ns3::TcpOptionEnd(EOL)) Payload Fragment [536:1040]
- 1.01758 /NodeList/0/DeviceList/0/$ns3::PointToPointNetDevice/TxQueue/Dequeue ns3::PppHeader (Point-to-Point Protocol: IP (0x0021)) ns3::Ipv4Header (tos 0x0 DSCP Default ECN Not-ECT ttl 64 id 7 protocol 6 offset (bytes) 0 flags [none] length: 556 10.1.1.1 > 10.1.1.2) ns3::TcpHeader (49153 > 8080 [ACK] Seq=2617 Ack=1 Win=32768 ns3::TcpOptionTS(1016;1011) ns3::TcpOptionEnd(EOL)) Payload Fragment [536:1040]
r 1.01958 /NodeList/1/DeviceList/0/$ns3::PointToPointNetDevice/MacRx ns3::PppHeader (Point-to-Point Protocol: IP (0x0021)) ns3::Ipv4Header (tos 0x0 DSCP Default ECN Not-ECT ttl 64 id 6 protocol 6 offset (bytes) 0 flags [none] length: 588 10.1.1.1 > 10.1.1.2) ns3::TcpHeader (49153 > 8080 [ACK] Seq=2081 Ack=1 Win=32768 ns3::TcpOptionTS(1016;1011) ns3::TcpOptionEnd(EOL)) Payload Fragment [0:536]
+ 1.01958 /NodeList/1/DeviceList/0/$ns3::PointToPointNetDevice/TxQueue/Enqueue ns3::PppHeader (Point-to-Point Protocol: IP (0x0021)) ns3::Ipv4Header (tos 0x0 DSCP Default ECN Not-ECT ttl 64 id 3 protocol 6 offset (bytes) 0 flags [none] length: 52 10.1.1.2 > 10.1.1.1) ns3::TcpHeader (8080 > 49153 [ACK] Seq=1 Ack=2617 Win=32768 ns3::TcpOptionTS(1019;1008) ns3::TcpOptionEnd(EOL))
- 1.01958 /NodeList/1/DeviceList/0/$ns3::PointToPointNetDevice/TxQueue/Dequeue ns3::PppHeader (Point-to-Point Protocol: IP (0x0021)) ns3::Ipv4Header (tos 0x0 DSCP Default ECN Not-ECT ttl 64 id 3 protocol 6 offset (bytes) 0 flags [none] length: 52 10.1.1.2 > 10.1.1.1) ns3::TcpHeader (8080 > 49153 [ACK] Seq=1 Ack=2617 Win=32768 ns3::TcpOptionTS(1019;1008) ns3::TcpOptionEnd(EOL))
r 1.02048 /NodeList/1/DeviceList/0/$ns3::PointToPointNetDevice/MacRx ns3::PppHeader (Point-to-Point Protocol: IP (0x0021)) ns3::Ipv4Header (tos 0x0 DSCP Default ECN Not-ECT ttl 64 id 7 protocol 6 offset (bytes) 0 flags [none] length: 556 10.1.1.1 > 10.1.1.2) ns3::TcpHeader (49153 > 8080 [ACK] Seq=2617 Ack=1 Win=32768 ns3::TcpOptionTS(1016;1011) ns3::TcpOptionEnd(EOL)) Payload Fragment [536:1040]
r 1.02167 /NodeList/0/DeviceList/0/$ns3::PointToPointNetDevice/MacRx ns3::PppHeader (Point-to-Point Protocol: IP (0x0021)) ns3::Ipv4Header (tos 0x0 DSCP Default ECN Not-ECT ttl 64 id 3 protocol 6 offset (bytes) 0 flags [none] length: 52 10.1.1.2 > 10.1.1.1) ns3::TcpHeader (8080 > 49153 [ACK] Seq=1 Ack=2617 Win=32768 ns3::TcpOptionTS(1019;1008) ns3::TcpOptionEnd(EOL))
+ 1.02496 /NodeList/0/DeviceList/0/$ns3::PointToPointNetDevice/TxQueue/Enqueue ns3::PppHeader (Point-to-Point Protocol: IP (0x0021)) ns3::Ipv4Header (tos 0x0 DSCP Default ECN Not-ECT ttl 64 id 8 protocol 6 offset (bytes) 0 flags [none] length: 588 10.1.1.1 > 10.1.1.2) ns3::TcpHeader (49153 > 8080 [ACK] Seq=3121 Ack=1 Win=32768 ns3::TcpOptionTS(1024;1019) ns3::TcpOptionEnd(EOL)) Payload Fragment [0:536]
- 1.02496 /NodeList/0/DeviceList/0/$ns3::PointToPointNetDevice/TxQueue/Dequeue ns3::PppHeader (Point-to-Point Protocol: IP (0x0021)) ns3::Ipv4Header (tos 0x0 DSCP Default ECN Not-ECT ttl 64 id 8 protocol 6 offset (bytes) 0 flags [none] length: 588 10.1.1.1 > 10.1.1.2) ns3::TcpHeader (49153 > 8080 [ACK] Seq=3121 Ack=1 Win=32768 ns3::TcpOptionTS(1024;1019) ns3::TcpOptionEnd(EOL)) Payload Fragment [0:536]
+ 1.02496 /NodeList/0/DeviceList/0/$ns3::PointToPointNetDevice/TxQueue/Enqueue ns3::PppHeader (Point-to-Point Protocol: IP (0x0021)) ns3::Ipv4Header (tos 0x0 DSCP Default ECN Not-ECT ttl 64 id 9 protocol 6 offset (bytes) 0 flags [none] length: 556 10.1.1.1 > 10.1.1.2) ns3::TcpHeader (49153 > 8080 [ACK] Seq=3657 Ack=1 Win=32768 ns3::TcpOptionTS(1024;1019) ns3::TcpOptionEnd(EOL)) Payload Fragment [536:1040]
- 1.0259 /NodeList/0/DeviceList/0/$ns3::PointToPointNetDevice/TxQueue/Dequeue ns3::PppHeader (Point-to-Point Protocol: IP (0x0021)) ns3::Ipv4Header (tos 0x0 DSCP Default ECN Not-ECT ttl 64 id 9 protocol 6 offset (bytes) 0 flags [none] length: 556 10.1.1.1 > 10.1.1.2) ns3::TcpHeader (49153 > 8080 [ACK] Seq=3657 Ack=1 Win=32768 ns3::TcpOptionTS(1024;1019) ns3::TcpOptionEnd(EOL)) Payload Fragment [536:1040]
r 1.0279 /NodeList/1/DeviceList/0/$ns3::PointToPointNetDevice/MacRx ns3::PppHeader (Point-to-Point Protocol: IP (0x0021)) ns3::Ipv4Header (tos 0x0 DSCP Default ECN Not-ECT ttl 64 id 8 protocol 6 offset (bytes) 0 flags [none] length: 588 10.1.1.1 > 10.1.1.2) ns3::TcpHeader (49153 > 8080 [ACK] Seq=3121 Ack=1 Win=32768 ns3::TcpOptionTS(1024;1019) ns3::TcpOptionEnd(EOL)) Payload Fragment [0:536]
+ 1.0279 /NodeList/1/DeviceList/0/$ns3::PointToPointNetDevice/TxQueue/Enqueue ns3::PppHeader (Point-to-Point Protocol: IP (0x0021)) ns3::Ipv4Header (tos 0x0 DSCP Default ECN Not-ECT ttl 64 id 4 protocol 6 offset (bytes) 0 flags [none] length: 52 10.1.1.2 > 10.1.1.1) ns3::TcpHeader (8080 > 49153 [ACK] Seq=1 Ack=3657 Win=32768 ns3::TcpOptionTS(1027;1016) ns3::TcpOptionEnd(EOL))
- 1.0279 /NodeList/1/DeviceList/0/$ns3::PointToPointNetDevice/TxQueue/Dequeue ns3::PppHeader (Point-to-Point Protocol: IP (0x0021)) ns3::Ipv4Header (tos 0x0 DSCP Default ECN Not-ECT ttl 64 id 4 protocol 6 offset (bytes) 0 flags [none] length: 52 10.1.1.2 > 10.1.1.1) ns3::TcpHeader (8080 > 49153 [ACK] Seq=1 Ack=3657 Win=32768 ns3::TcpOptionTS(1027;1016) ns3::TcpOptionEnd(EOL))
r 1.0288 /NodeList/1/DeviceList/0/$ns3::PointToPointNetDevice/MacRx ns3::PppHeader (Point-to-Point Protocol: IP (0x0021)) ns3::Ipv4Header (tos 0x0 DSCP Default ECN Not-ECT ttl 64 id 9 protocol 6 offset (bytes) 0 flags [none] length: 556 10.1.1.1 > 10.1.1.2) ns3::TcpHeader (49153 > 8080 [ACK] Seq=3657 Ack=1 Win=32768 ns3::TcpOptionTS(1024;1019) ns3::TcpOptionEnd(EOL)) Payload Fragment [536:1040]
r 1.02999 /NodeList/0/DeviceList/0/$ns3::PointToPointNetDevice/MacRx ns3::PppHeader (Point-to-Point Protocol: IP (0x0021)) ns3::Ipv4Header (tos 0x0 DSCP Default ECN Not-ECT ttl 64 id 4 protocol 6 offset (bytes) 0 flags [none] length: 52 10.1.1.2 > 10.1.1.1) ns3::TcpHeader (8080 > 49153 [ACK] Seq=1 Ack=3657 Win=32768 ns3::TcpOptionTS(1027;1016) ns3::TcpOptionEnd(EOL))
+ 1.03328 /NodeList/0/DeviceList/0/$ns3::PointToPointNetDevice/TxQueue/Enqueue ns3::PppHeader (Point-to-Point Protocol: IP (0x0021)) ns3::Ipv4Header (tos 0x0 DSCP Default ECN Not-ECT ttl 64 id 10 protocol 6 offset (bytes) 0 flags [none] length: 588 10.1.1.1 > 10.1.1.2) ns3::TcpHeader (49153 > 8080 [ACK] Seq=4161 Ack=1 Win=32768 ns3::TcpOptionTS(1033;1027) ns3::TcpOptionEnd(EOL)) Payload Fragment [0:536]
- 1.03328 /NodeList/0/DeviceList/0/$ns3::PointToPointNetDevice/TxQueue/Dequeue ns3::PppHeader (Point-to-Point Protocol: IP (0x0021)) ns3::Ipv4Header (tos 0x0 DSCP Default ECN Not-ECT ttl 64 id 10 protocol 6 offset (bytes) 0 flags [none] length: 588 10.1.1.1 > 10.1.1.2) ns3::TcpHeader (49153 > 8080 [ACK] Seq=4161 Ack=1 Win=32768 ns3::TcpOptionTS(1033;1027) ns3::TcpOptionEnd(EOL)) Payload Fragment [0:536]
+ 1.03328 /NodeList/0/DeviceList/0/$ns3::PointToPointNetDevice/TxQueue/Enqueue ns3::PppHeader (Point-to-Point Protocol: IP (0x0021)) ns3::Ipv4Header (tos 0x0 DSCP Default ECN Not-ECT ttl 64 id 11 protocol 6 offset (bytes) 0 flags [none] length: 556 10.1.1.1 > 10.1.1.2) ns3::TcpHeader (49153 > 8080 [ACK] Seq=4697 Ack=1 Win=32768 ns3::TcpOptionTS(1033;1027) ns3::TcpOptionEnd(EOL)) Payload Fragment [536:1040]
- 1.03422 /NodeList/0/DeviceList/0/$ns3::PointToPointNetDevice/TxQueue/Dequeue ns3::PppHeader (Point-to-Point Protocol: IP (0x0021)) ns3::Ipv4Header (tos 0x0 DSCP Default ECN Not-ECT ttl 64 id 11 protocol 6 offset (bytes) 0 flags [none] length: 556 10.1.1.1 > 10.1.1.2) ns3::TcpHeader (49153 > 8080 [ACK] Seq=4697 Ack=1 Win=32768 ns3::TcpOptionTS(1033;1027) ns3::TcpOptionEnd(EOL)) Payload Fragment [536:1040]
r 1.03622 /NodeList/1/DeviceList/0/$ns3::PointToPointNetDevice/MacRx ns3::PppHeader (Point-to-Point Protocol: IP (0x0021)) ns3::Ipv4Header (tos 0x0 DSCP Default ECN Not-ECT ttl 64 id 10 protocol 6 offset (bytes) 0 flags [none] length: 588 10.1.1.1 > 10.1.1.2) ns3::TcpHeader (49153 > 8080 [ACK] Seq=4161 Ack=1 Win=32768 ns3::TcpOptionTS(1033;1027) ns3::TcpOptionEnd(EOL)) Payload Fragment [0:536]
+ 1.03622 /NodeList/1/DeviceList/0/$ns3::PointToPointNetDevice/TxQueue/Enqueue ns3::PppHeader (Point-to-Point Protocol: IP (0x0021)) ns3::Ipv4Header (tos 0x0 DSCP Default ECN Not-ECT ttl 64 id 5 protocol 6 offset (bytes) 0 flags [none] length: 52 10.1.1.2 > 10.1.1.1) ns3::TcpHeader (8080 > 49153 [ACK] Seq=1 Ack=4697 Win=32768 ns3::TcpOptionTS(1036;1024) ns3::TcpOptionEnd(EOL))
- 1.03622 /NodeList/1/DeviceList/0/$ns3::PointToPointNetDevice/TxQueue/Dequeue ns3::PppHeader (Point-to-Point Protocol: IP (0x0021)) ns3::Ipv4Header (tos 0x0 DSCP Default ECN Not-ECT ttl 64 id 5 protocol 6 offset (bytes) 0 flags [none] length: 52 10.1.1.2 > 10.1.1.1) ns3::TcpHeader (8080 > 49153 [ACK] Seq=1 Ack=4697 Win=32768 ns3::TcpOptionTS(1036;1024) ns3::TcpOptionEnd(EOL))
r 1.03712 /NodeList/1/DeviceList/0/$ns3::PointToPointNetDevice/MacRx ns3::PppHeader (Point-to-Point Protocol: IP (0x0021)) ns3::Ipv4Header (tos 0x0 DSCP Default ECN Not-ECT ttl 64 id 11 protocol 6 offset (bytes) 0 flags [none] length: 556 10.1.1.1 > 10.1.1.2) ns3::TcpHeader (49153 > 8080 [ACK] Seq=4697 Ack=1 Win=32768 ns3::TcpOptionTS(1033;1027) ns3::TcpOptionEnd(EOL)) Payload Fragment [536:1040]
r 1.03831 /NodeList/0/DeviceList/0/$ns3::PointToPointNetDevice/MacRx ns3::PppHeader (Point-to-Point Protocol: IP (0x0021)) ns3::Ipv4Header (tos 0x0 DSCP Default ECN Not-ECT ttl 64 id 5 protocol 6 offset (bytes) 0 flags [none] length: 52 10.1.1.2 > 10.1.1.1) ns3::TcpHeader (8080 > 49153 [ACK] Seq=1 Ack=4697 Win=32768 ns3::TcpOptionTS(1036;1024) ns3::TcpOptionEnd(EOL))
+ 1.0416 /NodeList/0/DeviceList/0/$ns3::PointToPointNetDevice/TxQueue/Enqueue ns3::PppHeader (Point-to-Point Protocol: IP (0x0021)) ns3::Ipv4Header (tos 0x0 DSCP Default ECN Not-ECT ttl 64 id 12 protocol 6 offset (bytes) 0 flags [none] length: 588 10.1.1.1 > 10.1.1.2) ns3::TcpHeader (49153 > 8080 [ACK] Seq=5201 Ack=1 Win=32768 ns3::TcpOptionTS(1041;1036) ns3::TcpOptionEnd(EOL)) Payload Fragment [0:536]
- 1.0416 /NodeList/0/DeviceList/0/$ns3::PointToPointNetDevice/TxQueue/Dequeue ns3::PppHeader (Point-to-Point Protocol: IP (0x0021)) ns3::Ipv4Header (tos 0x0 DSCP Default ECN Not-ECT ttl 64 id 12 protocol 6 offset (bytes) 0 flags [none] length: 588 10.1.1.1 > 10.1.1.2) ns3::TcpHeader (49153 > 8080 [ACK] Seq=5201 Ack=1 Win=32768 ns3::TcpOptionTS(1041;1036) ns3::TcpOptionEnd(EOL)) Payload Fragment [0:536]
+ 1.0416 /NodeList/0/DeviceList/0/$ns3::PointToPointNetDevice/TxQueue/Enqueue ns3::PppHeader (Point-to-Point Protocol: IP (0x0021)) ns3::Ipv4Header (tos 0x0 DSCP Default ECN Not-ECT ttl 64 id 13 protocol 6 offset (bytes) 0 flags [none] length: 556 10.1.1.1 > 10.1.1.2) ns3::TcpHeader (49153 > 8080 [ACK] Seq=5737 Ack=1 Win=32768 ns3::TcpOptionTS(1041;1036) ns3::TcpOptionEnd(EOL)) Payload Fragment [536:1040]
- 1.04254 /NodeList/0/DeviceList/0/$ns3::PointToPointNetDevice/TxQueue/Dequeue ns3::PppHeader (Point-to-Point Protocol: IP (0x0021)) ns3::Ipv4Header (tos 0x0 DSCP Default ECN Not-ECT ttl 64 id 13 protocol 6 offset (bytes) 0 flags [none] length: 556 10.1.1.1 > 10.1.1.2) ns3::TcpHeader (49153 > 8080 [ACK] Seq=5737 Ack=1 Win=32768 ns3::TcpOptionTS(1041;1036) ns3::TcpOptionEnd(EOL)) Payload Fragment [536:1040]
r 1.04454 /NodeList/1/DeviceList/0/$ns3::PointToPointNetDevice/MacRx ns3::PppHeader (Point-to-Point Protocol: IP (0x0021)) ns3::Ipv4Header (tos 0x0 DSCP Default ECN Not-ECT ttl 64 id 12 protocol 6 offset (bytes) 0 flags [none] length: 588 10.1.1.1 > 10.1.1.2) ns3::TcpHeader (49153 > 8080 [ACK] Seq=5201 Ack=1 Win=32768 ns3::TcpOptionTS(1041;1036) ns3::TcpOptionEnd(EOL)) Payload Fragment [0:536]
+ 1.04454 /NodeList/1/DeviceList/0/$ns3::PointToPointNetDevice/TxQueue/Enqueue ns3::PppHeader (Point-to-Point Protocol: IP (0x0021)) ns3::Ipv4Header (tos 0x0 DSCP Default ECN Not-ECT ttl 64 id 6 protocol 6 offset (bytes) 0 flags [none] length: 52 10.1.1.2 > 10.1.1.1) ns3::TcpHeader (8080 > 49153 [ACK] Seq=1 Ack=5737 Win=32768 ns3::TcpOptionTS(1044;1033) ns3::TcpOptionEnd(EOL))
- 1.04454 /NodeList/1/DeviceList/0/$ns3::PointToPointNetDevice/TxQueue/Dequeue ns3::PppHeader (Point-to-Point Protocol: IP (0x0021)) ns3::Ipv4Header (tos 0x0 DSCP Default ECN Not-ECT ttl 64 id 6 protocol 6 offset (bytes) 0 flags [none] length: 52 10.1.1.2 > 10.1.1.1) ns3::TcpHeader (8080 > 49153 [ACK] Seq=1 Ack=5737 Win=32768 ns3::TcpOptionTS(1044;1033) ns3::TcpOptionEnd(EOL))
r 1.04544 /NodeList/1/DeviceList/0/$ns3::PointToPointNetDevice/MacRx ns3::PppHeader (Point-to-Point Protocol: IP (0x0021)) ns3::Ipv4Header (tos 0x0 DSCP Default ECN Not-ECT ttl 64 id 13 protocol 6 offset (bytes) 0 flags [none] length: 556 10.1.1.1 > 10.1.1.2) ns3::TcpHeader (49153 > 8080 [ACK] Seq=5737 Ack=1 Win=32768 ns3::TcpOptionTS(1041;1036) ns3::TcpOptionEnd(EOL)) Payload Fragment [536:1040]
r 1.04663 /NodeList/0/DeviceList/0/$ns3::PointToPointNetDevice/MacRx ns3::PppHeader (Point-to-Point Protocol: IP (0x0021)) ns3::Ipv4Header (tos 0x0 DSCP Default ECN Not-ECT ttl 64 id 6 protocol 6 offset (bytes) 0 flags [none] length: 52 10.1.1.2 > 10.1.1.1) ns3::TcpHeader (8080 > 49153 [ACK] Seq=1 Ack=5737 Win=32768 ns3::TcpOptionTS(1044;1033) ns3::TcpOptionEnd(EOL))
+ 1.04992 /NodeList/0/DeviceList/0/$ns3::PointToPointNetDevice/TxQueue/Enqueue ns3::PppHeader (Point-to-Point Protocol: IP (0x0021)) ns3::Ipv4Header (tos 0x0 DSCP Default ECN Not-ECT ttl 64 id 14 protocol 6 offset (bytes) 0 flags [none] length: 588 10.1.1.1 > 10.1.1.2) ns3::TcpHeader (49153 > 8080 [ACK] Seq=6241 Ack=1 Win=32768 ns3::TcpOptionTS(1049;1044) ns3::TcpOptionEnd(EOL)) Payload Fragment [0:536]
- 1.04992 /NodeList/0/DeviceList/0/$ns3::PointToPointNetDevice/TxQueue/Dequeue ns3::PppHeader (Point-to-Point Protocol: IP (0x0021)) ns3::Ipv4Header (tos 0x0 DSCP Default ECN Not-ECT ttl 64 id 14 protocol 6 offset (bytes) 0 flags [none] length: 588 10.1.1.1 > 10.1.1.2) ns3::TcpHeader (49153 > 8080 [ACK] Seq=6241 Ack=1 Win=32768 ns3::TcpOptionTS(1049;1044) ns3::TcpOptionEnd(EOL)) Payload Fragment [0:536]
+ 1.04992 /NodeList/0/DeviceList/0/$ns3::PointToPointNetDevice/TxQueue/Enqueue ns3::PppHeader (Point-to-Point Protocol: IP (0x0021)) ns3::Ipv4Header (tos 0x0 DSCP Default ECN Not-ECT ttl 64 id 15 protocol 6 offset (bytes) 0 flags [none] length: 556 10.1.1.1 > 10.1.1.2) ns3::TcpHeader (49153 > 8080 [ACK] Seq=6777 Ack=1 Win=32768 ns3::TcpOptionTS(1049;1044) ns3::TcpOptionEnd(EOL)) Payload Fragment [536:1040]
- 1.05086 /NodeList/0/DeviceList/0/$ns3::PointToPointNetDevice/TxQueue/Dequeue ns3::PppHeader (Point-to-Point Protocol: IP (0x0021)) ns3::Ipv4Header (tos 0x0 DSCP Default ECN Not-ECT ttl 64 id 15 protocol 6 offset (bytes) 0 flags [none] length: 556 10.1.1.1 > 10.1.1.2) ns3::TcpHeader (49153 > 8080 [ACK] Seq=6777 Ack=1 Win=32768 ns3::TcpOptionTS(1049;1044) ns3::TcpOptionEnd(EOL)) Payload Fragment [536:1040]
r 1.05286 /NodeList/1/DeviceList/0/$ns3::PointToPointNetDevice/MacRx ns3::PppHeader (Point-to-Point Protocol: IP (0x0021)) ns3::Ipv4Header (tos 0x0 DSCP Default ECN Not-ECT ttl 64 id 14 protocol 6 offset (bytes) 0 flags [none] length: 588 10.1.1.1 > 10.1.1.2) ns3::TcpHeader (49153 > 8080 [ACK] Seq=6241 Ack=1 Win=32768 ns3::TcpOptionTS(1049;1044) ns3::TcpOptionEnd(EOL)) Payload Fragment [0:536]
+ 1.05286 /NodeList/1/DeviceList/0/$ns3::PointToPointNetDevice/TxQueue/Enqueue ns3::PppHeader (Point-to-Point Protocol: IP (0x0021)) ns3::Ipv4Header (tos 0x0 DSCP Default ECN Not-ECT ttl 64 id 7 protocol 6 offset (bytes) 0 flags [none] length: 52 10.1.1.2 > 10.1.1.1) ns3::TcpHeader (8080 > 49153 [ACK] Seq=1 Ack=6777 Win=32768 ns3::TcpOptionTS(1052;1041) ns3::TcpOptionEnd(EOL))
- 1.05286 /NodeList/1/DeviceList/0/$ns3::PointToPointNetDevice/TxQueue/Dequeue ns3::PppHeader (Point-to-Point Protocol: IP (0x0021)) ns3::Ipv4Header (tos 0x0 DSCP Default ECN Not-ECT ttl 64 id 7 protocol 6 offset (bytes) 0 flags [none] length: 52 10.1.1.2 > 10.1.1.1) ns3::TcpHeader (8080 > 49153 [ACK] Seq=1 Ack=6777 Win=32768 ns3::TcpOptionTS(1052;1041) ns3::TcpOptionEnd(EOL))
r 1.05376 /NodeList/1/DeviceList/0/$ns3::PointToPointNetDevice/MacRx ns3::PppHeader (Point-to-Point Protocol: IP (0x0021)) ns3::Ipv4Header (tos 0x0 DSCP Default ECN Not-ECT ttl 64 id 15 protocol 6 offset (bytes) 0 flags [none] length: 556 10.1.1.1 > 10.1.1.2) ns3::TcpHeader (49153 > 8080 [ACK] Seq=6777 Ack=1 Win=32768 ns3::TcpOptionTS(1049;1044) ns3::TcpOptionEnd(EOL)) Payload Fragment [536:1040]
r 1.05495 /NodeList/0/DeviceList/0/$ns3::PointToPointNetDevice/MacRx ns3::PppHeader (Point-to-Point Protocol: IP (0x0021)) ns3::Ipv4Header (tos 0x0 DSCP Default ECN Not-ECT ttl 64 id 7 protocol 6 offset (bytes) 0 flags [none] length: 52 10.1.1.2 > 10.1.1.1) ns3::TcpHeader (8080 > 49153 [ACK] Seq=1 Ack=6777 Win=32768 ns3::TcpOptionTS(1052;1041) ns3::TcpOptionEnd(EOL))
+ 1.05824 /NodeList/0/DeviceList/0/$ns3::PointToPointNetDevice/TxQueue/Enqueue ns3::PppHeader (Point-to-Point Protocol: IP (0x0021)) ns3::Ipv4Header (tos 0x0 DSCP Default ECN Not-ECT ttl 64 id 16 protocol 6 offset (bytes) 0 flags [none] length: 588 10.1.1.1 > 10.1.1.2) ns3::TcpHeader (49153 > 8080 [ACK] Seq=7281 Ack=1 Win=32768 ns3::TcpOptionTS(1058;1052) ns3::TcpOptionEnd(EOL)) Payload Fragment [0:536]
- 1.05824 /NodeList/0/DeviceList/0/$ns3::PointToPointNetDevice/TxQueue/Dequeue ns3::PppHeader (Point-to-Point Protocol: IP (0x0021)) ns3::Ipv4Header (tos 0x0 DSCP Default ECN Not-ECT ttl 64 id 16 protocol 6 offset (bytes) 0 flags [none] length: 588 10.1.1.1 > 10.1.1.2) ns3::TcpHeader (49153 > 8080 [ACK] Seq=7281 Ack=1 Win=32768 ns3::TcpOptionTS(1058;1052) ns3::TcpOptionEnd(EOL)) Payload Fragment [0:536]
+ 1.05824 /NodeList/0/DeviceList/0/$ns3::PointToPointNetDevice/TxQueue/Enqueue ns3::PppHeader (Point-to-Point Protocol: IP (0x0021)) ns3::Ipv4Header (tos 0x0 DSCP Default ECN Not-ECT ttl 64 id 17 protocol 6 offset (bytes) 0 flags [none] length: 556 10.1.1.1 > 10.1.1.2) ns3::TcpHeader (49153 > 8080 [ACK] Seq=7817 Ack=1 Win=32768 ns3::TcpOptionTS(1058;1052) ns3::TcpOptionEnd(EOL)) Payload Fragment [536:1040]